 Entering Link 1 = J:\G09W\l1.exe PID=     53832.
  
 Copyright (c) 1988,1990,1992,1993,1995,1998,2003,2009,2013,
            Gaussian, Inc.  All Rights Reserved.
  
 This is part of the Gaussian(R) 09 program.  It is based on
 the Gaussian(R) 03 system (copyright 2003, Gaussian, Inc.),
 the Gaussian(R) 98 system (copyright 1998, Gaussian, Inc.),
 the Gaussian(R) 94 system (copyright 1995, Gaussian, Inc.),
 the Gaussian 92(TM) system (copyright 1992, Gaussian, Inc.),
 the Gaussian 90(TM) system (copyright 1990, Gaussian, Inc.),
 the Gaussian 88(TM) system (copyright 1988, Gaussian, Inc.),
 the Gaussian 86(TM) system (copyright 1986, Carnegie Mellon
 University), and the Gaussian 82(TM) system (copyright 1983,
 Carnegie Mellon University). Gaussian is a federally registered
 trademark of Gaussian, Inc.
  
 This software contains proprietary and confidential information,
 including trade secrets, belonging to Gaussian, Inc.
  
 This software is provided under written license and may be
 used, copied, transmitted, or stored only in accord with that
 written license.
  
 The following legend is applicable only to US Government
 contracts under FAR:
  
                    RESTRICTED RIGHTS LEGEND
  
 Use, reproduction and disclosure by the US Government is
 subject to restrictions as set forth in subparagraphs (a)
 and (c) of the Commercial Computer Software - Restricted
 Rights clause in FAR 52.227-19.
  
 Gaussian, Inc.
 340 Quinnipiac St., Bldg. 40, Wallingford CT 06492
  
  
 ---------------------------------------------------------------
 Warning -- This program may not be used in any manner that
 competes with the business of Gaussian, Inc. or will provide
 assistance to any competitor of Gaussian, Inc.  The licensee
 of this program is prohibited from giving any competitor of
 Gaussian, Inc. access to this program.  By using this program,
 the user acknowledges that Gaussian, Inc. is engaged in the
 business of creating and licensing software in the field of
 computational chemistry and represents and warrants to the
 licensee that it is not a competitor of Gaussian, Inc. and that
 it will not use this program in any manner prohibited above.
 ---------------------------------------------------------------
  

 Cite this work as:
 Gaussian 09, Revision D.01,
 M. J. Frisch, G. W. Trucks, H. B. Schlegel, G. E. Scuseria, 
 M. A. Robb, J. R. Cheeseman, G. Scalmani, V. Barone, B. Mennucci, 
 G. A. Petersson, H. Nakatsuji, M. Caricato, X. Li, H. P. Hratchian, 
 A. F. Izmaylov, J. Bloino, G. Zheng, J. L. Sonnenberg, M. Hada, 
 M. Ehara, K. Toyota, R. Fukuda, J. Hasegawa, M. Ishida, T. Nakajima, 
 Y. Honda, O. Kitao, H. Nakai, T. Vreven, J. A. Montgomery, Jr., 
 J. E. Peralta, F. Ogliaro, M. Bearpark, J. J. Heyd, E. Brothers, 
 K. N. Kudin, V. N. Staroverov, T. Keith, R. Kobayashi, J. Normand, 
 K. Raghavachari, A. Rendell, J. C. Burant, S. S. Iyengar, J. Tomasi, 
 M. Cossi, N. Rega, J. M. Millam, M. Klene, J. E. Knox, J. B. Cross, 
 V. Bakken, C. Adamo, J. Jaramillo, R. Gomperts, R. E. Stratmann, 
 O. Yazyev, A. J. Austin, R. Cammi, C. Pomelli, J. W. Ochterski, 
 R. L. Martin, K. Morokuma, V. G. Zakrzewski, G. A. Voth, 
 P. Salvador, J. J. Dannenberg, S. Dapprich, A. D. Daniels, 
 O. Farkas, J. B. Foresman, J. V. Ortiz, J. Cioslowski, 
 and D. J. Fox, Gaussian, Inc., Wallingford CT, 2013.
 
 ******************************************
 Gaussian 09:  IA32W-G09RevD.01 24-Apr-2013
                02-Feb-2021 
 ******************************************
 %chk=C:\Users\Joseph\Desktop\IF\materias\contempo 2\rotatorio\glicina\glycina_ra
 man_opt_nmr.chk
 -------------------------------------
 # nmr=giao hf/6-31g geom=connectivity
 -------------------------------------
 1/38=1,57=2/1;
 2/12=2,17=6,18=5,40=1/2;
 3/5=1,6=6,11=9,16=1,25=1,30=1/1,2,8,3;
 4//1;
 5/5=2,38=5/2;
 8/6=1,10=90,11=11/1;
 10/13=100,45=16/2;
 6/7=2,8=2,9=2,10=2,28=1/1;
 99/9=1/99;
 -------------------
 Title Card Required
 -------------------
 Symbolic Z-matrix:
 Charge =  0 Multiplicity = 1
 N                    -1.11196  -1.7183    0. 
 H                    -0.1124   -1.74797   0. 
 C                    -1.79892  -0.44249   0. 
 C                    -0.79439   0.70093   0. 
 H                    -2.42375  -0.36569  -0.88982 
 H                    -2.42375  -0.36569   0.88982 
 O                     0.43961   0.45436   0. 
 O                    -1.25287   2.05545   0. 
 H                    -1.63743  -2.56911   0. 
 H                    -0.49815   2.64874   0. 
 
                          Input orientation:                          
 ---------------------------------------------------------------------
 Center     Atomic      Atomic             Coordinates (Angstroms)
 Number     Number       Type             X           Y           Z
 ---------------------------------------------------------------------
      1          7           0       -1.111962   -1.718301    0.000000
      2          1           0       -0.112402   -1.747967    0.000000
      3          6           0       -1.798916   -0.442489    0.000000
      4          6           0       -0.794393    0.700935    0.000000
      5          1           0       -2.423749   -0.365686   -0.889823
      6          1           0       -2.423749   -0.365686    0.889823
      7          8           0        0.439613    0.454356    0.000000
      8          8           0       -1.252869    2.055445    0.000000
      9          1           0       -1.637433   -2.569112    0.000000
     10          1           0       -0.498148    2.648738    0.000000
 ---------------------------------------------------------------------
                    Distance matrix (angstroms):
                    1          2          3          4          5
     1  N    0.000000
     2  H    1.000000   0.000000
     3  C    1.449000   2.132745   0.000000
     4  C    2.439990   2.542092   1.522000   0.000000
     5  H    2.083780   2.836338   1.090000   2.141090   0.000000
     6  H    2.083780   2.836338   1.090000   2.141090   1.779646
     7  O    2.669798   2.270451   2.411502   1.258401   3.108552
     8  O    3.776377   3.970720   2.556921   1.430000   2.832777
     9  H    1.000000   1.732051   2.132745   3.376970   2.503031
    10  H    4.409966   4.413595   3.353757   1.970203   3.685984
                    6          7          8          9         10
     6  H    0.000000
     7  O    3.108552   0.000000
     8  O    2.832777   2.329804   0.000000
     9  H    2.503031   3.668172   4.640520   0.000000
    10  H    3.685984   2.386360   0.960000   5.340781   0.000000
 Stoichiometry    C2H5NO2
 Framework group  CS[SG(C2H3NO2),X(H2)]
 Deg. of freedom    16
 Full point group                 CS      NOp   2
 Largest Abelian subgroup         CS      NOp   2
 Largest concise Abelian subgroup CS      NOp   2
                         Standard orientation:                         
 ---------------------------------------------------------------------
 Center     Atomic      Atomic             Coordinates (Angstroms)
 Number     Number       Type             X           Y           Z
 ---------------------------------------------------------------------
      1          7           0       -0.274322   -1.887825    0.000000
      2          1           0       -1.251614   -1.675927    0.000000
      3          6           0        0.699631   -0.814971    0.000000
      4          6           0        0.000000    0.536695    0.000000
      5          1           0        1.324573   -0.890886    0.889823
      6          1           0        1.324573   -0.890886   -0.889823
      7          8           0       -1.257071    0.594518    0.000000
      8          8           0        0.771149    1.740950    0.000000
      9          1           0        0.030815   -2.840134    0.000000
     10          1           0        0.181499    2.498521    0.000000
 ---------------------------------------------------------------------
 Rotational constants (GHZ):     10.6913336      3.6921152      2.7927870
 Standard basis: 6-31G (6D, 7F)
 There are    43 symmetry adapted cartesian basis functions of A'  symmetry.
 There are    12 symmetry adapted cartesian basis functions of A"  symmetry.
 There are    43 symmetry adapted basis functions of A'  symmetry.
 There are    12 symmetry adapted basis functions of A"  symmetry.
    55 basis functions,   130 primitive gaussians,    55 cartesian basis functions
    20 alpha electrons       20 beta electrons
       nuclear repulsion energy       175.9806077665 Hartrees.
 NAtoms=   10 NActive=   10 NUniq=    9 SFac= 1.23D+00 NAtFMM=   60 NAOKFM=F Big=F
 Integral buffers will be    262144 words long.
 Raffenetti 1 integral format.
 Two-electron integral symmetry is turned on.
 One-electron integrals computed using PRISM.
 NBasis=    55 RedAO= T EigKep=  8.00D-03  NBF=    43    12
 NBsUse=    55 1.00D-06 EigRej= -1.00D+00 NBFU=    43    12
 ExpMin= 1.61D-01 ExpMax= 5.48D+03 ExpMxC= 8.25D+02 IAcc=1 IRadAn=         1 AccDes= 0.00D+00
 Harris functional with IExCor=  205 and IRadAn=       1 diagonalized for initial guess.
 HarFok:  IExCor=  205 AccDes= 0.00D+00 IRadAn=         1 IDoV= 1 UseB2=F ITyADJ=14
 ICtDFT=  3500011 ScaDFX=  1.000000  1.000000  1.000000  1.000000
 FoFCou: FMM=F IPFlag=           0 FMFlag=      100000 FMFlg1=           0
         NFxFlg=           0 DoJE=T BraDBF=F KetDBF=T FulRan=T
         wScrn=  0.000000 ICntrl=     500 IOpCl=  0 I1Cent=   200000004 NGrid=           0
         NMat0=    1 NMatS0=      1 NMatT0=    0 NMatD0=    1 NMtDS0=    0 NMtDT0=    0
 Petite list used in FoFCou.
 Initial guess orbital symmetries:
       Occupied  (A') (A') (A') (A') (A') (A') (A') (A') (A') (A')
                 (A') (A') (A') (A") (A') (A") (A') (A") (A') (A")
       Virtual   (A") (A') (A') (A') (A') (A') (A") (A') (A') (A')
                 (A') (A') (A") (A') (A') (A") (A') (A") (A') (A')
                 (A') (A") (A") (A') (A') (A') (A') (A") (A') (A')
                 (A') (A') (A') (A') (A')
 The electronic state of the initial guess is 1-A'.
 Keep R1 ints in memory in symmetry-blocked form, NReq=2045697.
 Requested convergence on RMS density matrix=1.00D-08 within 128 cycles.
 Requested convergence on MAX density matrix=1.00D-06.
 Requested convergence on             energy=1.00D-06.
 No special actions if energy rises.
 SCF Done:  E(RHF) =  -282.679340942     A.U. after   14 cycles
            NFock= 14  Conv=0.23D-08     -V/T= 2.0014
 Range of M.O.s used for correlation:     1    55
 NBasis=    55 NAE=    20 NBE=    20 NFC=     0 NFV=     0
 NROrb=     55 NOA=    20 NOB=    20 NVA=    35 NVB=    35
          Differentiating once with respect to magnetic field using GIAOs.
          Electric field/nuclear overlap derivatives assumed to be zero.
 Keep R3 ints in memory in symmetry-blocked form, NReq=2589057.
 FoFJK:  IHMeth= 1 ICntrl=    6127 DoSepK=F KAlg= 0 I1Cent=   0 FoldK=F
 IRaf=         1 NMat=   1 IRICut=       1 DoRegI=T DoRafI=F ISym2E= 0.
          There are     3 degrees of freedom in the 1st order CPHF.  IDoFFX=0 NUNeed=     3.
      3 vectors produced by pass  0 Test12= 2.33D-14 3.33D-08 XBig12= 1.17D+00 5.23D-01.
 AX will form     3 AO Fock derivatives at one time.
      3 vectors produced by pass  1 Test12= 2.33D-14 3.33D-08 XBig12= 1.66D-02 7.41D-02.
      3 vectors produced by pass  2 Test12= 2.33D-14 3.33D-08 XBig12= 4.63D-04 7.75D-03.
      3 vectors produced by pass  3 Test12= 2.33D-14 3.33D-08 XBig12= 9.44D-06 1.06D-03.
      3 vectors produced by pass  4 Test12= 2.33D-14 3.33D-08 XBig12= 1.53D-07 9.98D-05.
      3 vectors produced by pass  5 Test12= 2.33D-14 3.33D-08 XBig12= 3.25D-09 1.49D-05.
      3 vectors produced by pass  6 Test12= 2.33D-14 3.33D-08 XBig12= 6.76D-11 1.98D-06.
      3 vectors produced by pass  7 Test12= 2.33D-14 3.33D-08 XBig12= 7.32D-13 1.96D-07.
 InvSVY:  IOpt=1 It=  1 EMax= 2.22D-16
 Solved reduced A of dimension    24 with     3 vectors.
 Calculating GIAO nuclear magnetic shielding tensors.
 SCF GIAO Magnetic shielding tensor (ppm):
      1  N    Isotropic =   277.6871   Anisotropy =    83.8914
   XX=   292.9091   YX=   -29.6516   ZX=     0.0000
   XY=   -20.6265   YY=   318.0892   ZY=     0.0000
   XZ=     0.0000   YZ=     0.0000   ZZ=   222.0629
   Eigenvalues:   222.0629   277.3836   333.6147
      2  H    Isotropic =    31.7413   Anisotropy =    18.0474
   XX=    43.3456   YX=    -2.6614   ZX=     0.0000
   XY=    -2.2864   YY=    29.4472   ZY=     0.0000
   XZ=     0.0000   YZ=     0.0000   ZZ=    22.4309
   Eigenvalues:    22.4309    29.0200    43.7729
      3  C    Isotropic =   164.2624   Anisotropy =    27.5193
   XX=   156.0981   YX=     5.2982   ZX=     0.0000
   XY=     4.4664   YY=   181.7095   ZY=     0.0000
   XZ=     0.0000   YZ=     0.0000   ZZ=   154.9797
   Eigenvalues:   154.9797   155.1989   182.6086
      4  C    Isotropic =    -7.6817   Anisotropy =   157.0692
   XX=    26.5483   YX=   -62.3090   ZX=     0.0000
   XY=   -35.7700   YY=  -146.6244   ZY=     0.0000
   XZ=     0.0000   YZ=     0.0000   ZZ=    97.0311
   Eigenvalues:  -159.5472    39.4711    97.0311
      5  H    Isotropic =    29.6969   Anisotropy =     8.9109
   XX=    30.5517   YX=     1.9377   ZX=     5.3286
   XY=     2.4646   YY=    28.6453   ZY=     0.2209
   XZ=     5.0361   YZ=    -1.3621   ZZ=    29.8935
   Eigenvalues:    24.1776    29.2755    35.6375
      6  H    Isotropic =    29.6969   Anisotropy =     8.9109
   XX=    30.5517   YX=     1.9377   ZX=    -5.3286
   XY=     2.4646   YY=    28.6453   ZY=    -0.2209
   XZ=    -5.0361   YZ=     1.3621   ZZ=    29.8935
   Eigenvalues:    24.1776    29.2755    35.6375
      7  O    Isotropic =  -227.2567   Anisotropy =   801.5332
   XX=  -514.5513   YX=   -72.0351   ZX=     0.0000
   XY=  -108.2863   YY=  -474.3175   ZY=     0.0000
   XZ=     0.0000   YZ=     0.0000   ZZ=   307.0988
   Eigenvalues:  -586.8121  -402.0567   307.0988
      8  O    Isotropic =   135.0231   Anisotropy =   237.7438
   XX=    14.9142   YX=   213.8852   ZX=     0.0000
   XY=    99.7452   YY=   205.2541   ZY=     0.0000
   XZ=     0.0000   YZ=     0.0000   ZZ=   184.9010
   Eigenvalues:   -73.3507   184.9010   293.5189
      9  H    Isotropic =    33.6296   Anisotropy =    19.9365
   XX=    30.4866   YX=    -3.2130   ZX=     0.0000
   XY=    -4.4450   YY=    46.0285   ZY=     0.0000
   XZ=     0.0000   YZ=     0.0000   ZZ=    24.3738
   Eigenvalues:    24.3738    29.5945    46.9207
     10  H    Isotropic =    27.1003   Anisotropy =    11.3575
   XX=    22.0373   YX=    -0.2680   ZX=     0.0000
   XY=    -3.8902   YY=    34.3299   ZY=     0.0000
   XZ=     0.0000   YZ=     0.0000   ZZ=    24.9339
   Eigenvalues:    21.6951    24.9339    34.6720
 End of Minotr F.D. properties file   721 does not exist.
 End of Minotr F.D. properties file   722 does not exist.
 End of Minotr F.D. properties file   788 does not exist.

 **********************************************************************

            Population analysis using the SCF density.

 **********************************************************************

 Orbital symmetries:
       Occupied  (A') (A') (A') (A') (A') (A') (A') (A') (A') (A')
                 (A') (A') (A") (A') (A') (A") (A') (A") (A') (A")
       Virtual   (A") (A') (A') (A') (A') (A") (A') (A') (A') (A')
                 (A") (A') (A') (A') (A') (A") (A') (A") (A') (A')
                 (A") (A') (A') (A") (A') (A') (A') (A") (A') (A')
                 (A') (A') (A') (A') (A')
 The electronic state is 1-A'.
 Alpha  occ. eigenvalues --  -20.62706 -20.58341 -15.53253 -11.43134 -11.29753
 Alpha  occ. eigenvalues --   -1.45759  -1.36492  -1.18189  -0.98314  -0.81403
 Alpha  occ. eigenvalues --   -0.72753  -0.69289  -0.65952  -0.62672  -0.60527
 Alpha  occ. eigenvalues --   -0.58367  -0.55807  -0.47898  -0.46293  -0.37112
 Alpha virt. eigenvalues --    0.13847   0.21345   0.23434   0.26865   0.31715
 Alpha virt. eigenvalues --    0.31792   0.37580   0.39435   0.45516   0.52822
 Alpha virt. eigenvalues --    0.75393   0.78531   0.81453   0.84398   0.89940
 Alpha virt. eigenvalues --    0.92563   0.95996   1.03535   1.04329   1.11275
 Alpha virt. eigenvalues --    1.17019   1.17864   1.20879   1.21323   1.24770
 Alpha virt. eigenvalues --    1.27079   1.30734   1.35249   1.39419   1.43477
 Alpha virt. eigenvalues --    1.52009   1.55899   1.85063   2.04007   2.14624
          Condensed to atoms (all electrons):
               1          2          3          4          5          6
     1  N    7.261099   0.329809   0.176344  -0.049924  -0.060066  -0.060066
     2  H    0.329809   0.311169  -0.029643  -0.004542   0.002033   0.002033
     3  C    0.176344  -0.029643   5.150551   0.238427   0.391046   0.391046
     4  C   -0.049924  -0.004542   0.238427   4.486179  -0.034053  -0.034053
     5  H   -0.060066   0.002033   0.391046  -0.034053   0.527138  -0.034950
     6  H   -0.060066   0.002033   0.391046  -0.034053  -0.034950   0.527138
     7  O   -0.002623   0.012023  -0.107912   0.480561   0.001391   0.001391
     8  O    0.001344   0.000232  -0.073762   0.168880   0.002544   0.002544
     9  H    0.340304  -0.015868  -0.030775   0.003650  -0.000527  -0.000527
    10  H   -0.000109  -0.000006   0.004866  -0.017055  -0.000175  -0.000175
               7          8          9         10
     1  N   -0.002623   0.001344   0.340304  -0.000109
     2  H    0.012023   0.000232  -0.015868  -0.000006
     3  C   -0.107912  -0.073762  -0.030775   0.004866
     4  C    0.480561   0.168880   0.003650  -0.017055
     5  H    0.001391   0.002544  -0.000527  -0.000175
     6  H    0.001391   0.002544  -0.000527  -0.000175
     7  O    8.287201  -0.098056   0.000293   0.003926
     8  O   -0.098056   8.480906  -0.000021   0.252202
     9  H    0.000293  -0.000021   0.350824   0.000001
    10  H    0.003926   0.252202   0.000001   0.313782
 Mulliken charges:
               1
     1  N   -0.936114
     2  H    0.392759
     3  C   -0.110187
     4  C    0.761929
     5  H    0.205618
     6  H    0.205618
     7  O   -0.578198
     8  O   -0.736814
     9  H    0.352647
    10  H    0.442742
 Sum of Mulliken charges =   0.00000
 Mulliken charges with hydrogens summed into heavy atoms:
               1
     1  N   -0.190708
     3  C    0.301048
     4  C    0.761929
     7  O   -0.578198
     8  O   -0.294072
 Electronic spatial extent (au):  <R**2>=            436.2540
 Charge=              0.0000 electrons
 Dipole moment (field-independent basis, Debye):
    X=              1.5400    Y=             -0.5858    Z=              0.0000  Tot=              1.6476
 Quadrupole moment (field-independent basis, Debye-Ang):
   XX=            -34.2711   YY=            -22.3683   ZZ=            -30.6218
   XY=             -2.0278   XZ=              0.0000   YZ=              0.0000
 Traceless Quadrupole moment (field-independent basis, Debye-Ang):
   XX=             -5.1840   YY=              6.7187   ZZ=             -1.5347
   XY=             -2.0278   XZ=              0.0000   YZ=              0.0000
 Octapole moment (field-independent basis, Debye-Ang**2):
  XXX=              0.1008  YYY=              9.0558  ZZZ=              0.0000  XYY=             -4.4377
  XXY=             -9.7576  XXZ=              0.0000  XZZ=              0.6776  YZZ=              4.0317
  YYZ=              0.0000  XYZ=              0.0000
 Hexadecapole moment (field-independent basis, Debye-Ang**3):
 XXXX=           -142.8302 YYYY=           -232.6112 ZZZZ=            -32.8805 XXXY=             -5.6635
 XXXZ=              0.0000 YYYX=            -19.4641 YYYZ=              0.0000 ZZZX=              0.0000
 ZZZY=              0.0000 XXYY=            -84.8718 XXZZ=            -27.6022 YYZZ=            -69.9218
 XXYZ=              0.0000 YYXZ=              0.0000 ZZXY=             -5.6937
 N-N= 1.759806077665D+02 E-N=-1.017531912449D+03  KE= 2.822923094306D+02
 Symmetry A'   KE= 2.689289323524D+02
 Symmetry A"   KE= 1.336337707828D+01
 1|1|UNPC-DUMMYMAN|SP|RHF|6-31G|C2H5N1O2|JOSEPH|02-Feb-2021|0||# nmr=gi
 ao hf/6-31g geom=connectivity||Title Card Required||0,1|N,0,-1.1119615
 3,-1.71830143,0.|H,0,-0.11240153,-1.74796743,0.|C,0,-1.79891553,-0.442
 48943,0.|C,0,-0.79439253,0.70093457,0.|H,0,-2.42374853,-0.36568643,-0.
 889823|H,0,-2.42374853,-0.36568643,0.889823|O,0,0.43961347,0.45435557,
 0.|O,0,-1.25286881,2.05544537,0.|H,0,-1.63743339,-2.56911241,0.|H,0,-0
 .49814796,2.64873824,0.||Version=IA32W-G09RevD.01|State=1-A'|HF=-282.6
 793409|RMSD=2.306e-009|Dipole=-0.643544,-0.0777971,0.|Quadrupole=-2.63
 63555,3.7773772,-1.1410217,3.4010275,0.,0.|PG=CS [SG(C2H3N1O2),X(H2)]|
 |@


 THE CHYMISTS ARE A STRANGE CLASS OF MORTALS IMPELLED
 BY AN ALMOST INSANE IMPULSE TO SEEK THEIR PLEASURE
 AMONG SMOKE AND VAPOR, SOOT AND FLAME, POISONS AND
 POVERTY; YET AMONG ALL THESE EVILS I SEEM TO LIVE
 SO SWEETLY, THAT I MAY DIE IF I WOULD CHANGE PLACES
 WITH THE PERSIAN KING.
   --  JOHANN JOACHIM BECHER, 1635-1682
 ACTA LABORATORII CHYMICA MONACENSIS, 1669
 Job cpu time:       0 days  0 hours  0 minutes  4.0 seconds.
 File lengths (MBytes):  RWF=      5 Int=      0 D2E=      0 Chk=      1 Scr=      1
 Normal termination of Gaussian 09 at Tue Feb 02 12:45:14 2021.
