 Entering Link 1 = J:\G09W\l1.exe PID=    103264.
  
 Copyright (c) 1988,1990,1992,1993,1995,1998,2003,2009,2013,
            Gaussian, Inc.  All Rights Reserved.
  
 This is part of the Gaussian(R) 09 program.  It is based on
 the Gaussian(R) 03 system (copyright 2003, Gaussian, Inc.),
 the Gaussian(R) 98 system (copyright 1998, Gaussian, Inc.),
 the Gaussian(R) 94 system (copyright 1995, Gaussian, Inc.),
 the Gaussian 92(TM) system (copyright 1992, Gaussian, Inc.),
 the Gaussian 90(TM) system (copyright 1990, Gaussian, Inc.),
 the Gaussian 88(TM) system (copyright 1988, Gaussian, Inc.),
 the Gaussian 86(TM) system (copyright 1986, Carnegie Mellon
 University), and the Gaussian 82(TM) system (copyright 1983,
 Carnegie Mellon University). Gaussian is a federally registered
 trademark of Gaussian, Inc.
  
 This software contains proprietary and confidential information,
 including trade secrets, belonging to Gaussian, Inc.
  
 This software is provided under written license and may be
 used, copied, transmitted, or stored only in accord with that
 written license.
  
 The following legend is applicable only to US Government
 contracts under FAR:
  
                    RESTRICTED RIGHTS LEGEND
  
 Use, reproduction and disclosure by the US Government is
 subject to restrictions as set forth in subparagraphs (a)
 and (c) of the Commercial Computer Software - Restricted
 Rights clause in FAR 52.227-19.
  
 Gaussian, Inc.
 340 Quinnipiac St., Bldg. 40, Wallingford CT 06492
  
  
 ---------------------------------------------------------------
 Warning -- This program may not be used in any manner that
 competes with the business of Gaussian, Inc. or will provide
 assistance to any competitor of Gaussian, Inc.  The licensee
 of this program is prohibited from giving any competitor of
 Gaussian, Inc. access to this program.  By using this program,
 the user acknowledges that Gaussian, Inc. is engaged in the
 business of creating and licensing software in the field of
 computational chemistry and represents and warrants to the
 licensee that it is not a competitor of Gaussian, Inc. and that
 it will not use this program in any manner prohibited above.
 ---------------------------------------------------------------
  

 Cite this work as:
 Gaussian 09, Revision D.01,
 M. J. Frisch, G. W. Trucks, H. B. Schlegel, G. E. Scuseria, 
 M. A. Robb, J. R. Cheeseman, G. Scalmani, V. Barone, B. Mennucci, 
 G. A. Petersson, H. Nakatsuji, M. Caricato, X. Li, H. P. Hratchian, 
 A. F. Izmaylov, J. Bloino, G. Zheng, J. L. Sonnenberg, M. Hada, 
 M. Ehara, K. Toyota, R. Fukuda, J. Hasegawa, M. Ishida, T. Nakajima, 
 Y. Honda, O. Kitao, H. Nakai, T. Vreven, J. A. Montgomery, Jr., 
 J. E. Peralta, F. Ogliaro, M. Bearpark, J. J. Heyd, E. Brothers, 
 K. N. Kudin, V. N. Staroverov, T. Keith, R. Kobayashi, J. Normand, 
 K. Raghavachari, A. Rendell, J. C. Burant, S. S. Iyengar, J. Tomasi, 
 M. Cossi, N. Rega, J. M. Millam, M. Klene, J. E. Knox, J. B. Cross, 
 V. Bakken, C. Adamo, J. Jaramillo, R. Gomperts, R. E. Stratmann, 
 O. Yazyev, A. J. Austin, R. Cammi, C. Pomelli, J. W. Ochterski, 
 R. L. Martin, K. Morokuma, V. G. Zakrzewski, G. A. Voth, 
 P. Salvador, J. J. Dannenberg, S. Dapprich, A. D. Daniels, 
 O. Farkas, J. B. Foresman, J. V. Ortiz, J. Cioslowski, 
 and D. J. Fox, Gaussian, Inc., Wallingford CT, 2013.
 
 ******************************************
 Gaussian 09:  IA32W-G09RevD.01 24-Apr-2013
                02-Feb-2021 
 ******************************************
 %chk=C:\Users\Joseph\Desktop\IF\materias\contempo 2\rotatorio\triptofano\trip_ra
 man_opt_nmr.chk
 -------------------------------------
 # nmr=giao hf/6-31g geom=connectivity
 -------------------------------------
 1/38=1,57=2/1;
 2/12=2,17=6,18=5,40=1/2;
 3/5=1,6=6,11=9,16=1,25=1,30=1/1,2,8,3;
 4//1;
 5/5=2,38=5/2;
 8/6=1,10=90,11=11/1;
 10/13=100,45=16/2;
 6/7=2,8=2,9=2,10=2,28=1/1;
 99/9=1/99;
 -------------------
 Title Card Required
 -------------------
 Symbolic Z-matrix:
 Charge =  0 Multiplicity = 1
 N                    -3.06801  -1.76886  -0.58057 
 H                    -3.62757  -1.47031  -1.34731 
 C                    -2.05769  -0.84178  -0.10323 
 H                    -1.47463  -1.34624   0.65275 
 C                    -1.14307  -0.39698  -1.25089 
 C                    -2.72726   0.34645   0.55917 
 H                    -0.84703  -1.29502  -1.77887 
 H                    -1.71914   0.20586  -1.94337 
 C                     0.06972   0.35938  -0.7948 
 O                    -2.97224   1.41854   0.0463 
 C                     0.22451   1.70409  -0.73077 
 C                     1.31249  -0.2191   -0.31961 
 H                    -0.47423   2.4705   -0.98129 
 N                     1.48174   2.01437  -0.24777 
 C                     2.16542   0.84646   0.01083 
 C                     1.7668   -1.53115  -0.15569 
 H                     1.83016   2.92986  -0.11315 
 C                     3.4528    0.63925   0.5006 
 C                     3.04042  -1.74363   0.32925 
 H                     1.13661  -2.36408  -0.40514 
 H                     4.09468   1.46307   0.7487 
 C                     3.87617  -0.66426   0.65555 
 H                     3.40233  -2.74526   0.45985 
 H                     4.86262  -0.85842   1.03088 
 O                    -3.12918   0.06056   1.81917 
 H                    -3.60118   0.77233   2.24589 
 H                    -3.5493   -2.30606   0.1032 
 
                          Input orientation:                          
 ---------------------------------------------------------------------
 Center     Atomic      Atomic             Coordinates (Angstroms)
 Number     Number       Type             X           Y           Z
 ---------------------------------------------------------------------
      1          7           0       -3.068006   -1.768864   -0.580567
      2          1           0       -3.627568   -1.470309   -1.347312
      3          6           0       -2.057685   -0.841782   -0.103228
      4          1           0       -1.474625   -1.346235    0.652753
      5          6           0       -1.143067   -0.396976   -1.250894
      6          6           0       -2.727263    0.346454    0.559167
      7          1           0       -0.847030   -1.295017   -1.778868
      8          1           0       -1.719143    0.205858   -1.943368
      9          6           0        0.069719    0.359377   -0.794798
     10          8           0       -2.972237    1.418539    0.046303
     11          6           0        0.224509    1.704093   -0.730772
     12          6           0        1.312493   -0.219104   -0.319614
     13          1           0       -0.474226    2.470499   -0.981285
     14          7           0        1.481735    2.014373   -0.247768
     15          6           0        2.165422    0.846463    0.010827
     16          6           0        1.766797   -1.531154   -0.155685
     17          1           0        1.830155    2.929859   -0.113145
     18          6           0        3.452801    0.639251    0.500596
     19          6           0        3.040420   -1.743631    0.329251
     20          1           0        1.136608   -2.364076   -0.405142
     21          1           0        4.094683    1.463074    0.748702
     22          6           0        3.876171   -0.664260    0.655552
     23          1           0        3.402332   -2.745263    0.459852
     24          1           0        4.862622   -0.858417    1.030878
     25          8           0       -3.129178    0.060563    1.819170
     26          1           0       -3.601183    0.772332    2.245894
     27          1           0       -3.549301   -2.306062    0.103200
 ---------------------------------------------------------------------
                    Distance matrix (angstroms):
                    1          2          3          4          5
     1  N    0.000000
     2  H    0.995059   0.000000
     3  C    1.451924   2.099363   0.000000
     4  H    2.058775   2.941227   1.079787   0.000000
     5  C    2.456991   2.708152   1.533465   2.152881   0.000000
     6  C    2.426864   2.783135   1.516248   2.107856   2.517675
     7  H    2.567721   2.819283   2.116336   2.511828   1.082992
     8  H    2.752487   2.609005   2.144359   3.034572   1.083879
     9  C    3.797450   4.162085   2.539075   2.718366   1.500314
    10  O    3.249873   3.273693   2.442911   3.202280   2.885252
    11  C    4.787969   5.029458   3.476162   3.755755   2.560328
    12  C    4.653883   5.198642   3.434043   3.159739   2.632242
    13  H    4.986027   5.060386   3.774855   4.270637   2.956763
    14  N    5.926532   6.281479   4.550385   4.565598   3.702763
    15  C    5.880344   6.385194   4.549485   4.297666   3.752890
    16  C    4.859254   5.524749   3.886470   3.345831   3.309554
    17  H    6.803562   7.118384   5.416703   5.458310   4.604601
    18  C    7.034832   7.615552   5.737902   5.314587   5.026280
    19  C    6.175862   6.880962   5.195291   4.544030   4.670321
    20  H    4.250156   4.938003   3.551343   2.995610   3.127570
    21  H    7.969724   8.522392   6.624936   6.238479   5.906962
    22  C    7.139309   7.808155   5.984806   5.394082   5.375754
    23  H    6.625791   7.369589   5.809654   5.077322   5.394604
    24  H    8.143742   8.838186   7.012640   6.367232   6.441096
    25  O    3.018159   3.552263   2.378642   2.465189   3.685006
    26  H    3.838077   4.235713   3.241315   3.398334   4.431381
    27  H    0.993863   1.675886   2.100392   2.351076   3.356805
                    6          7          8          9         10
     6  C    0.000000
     7  H    3.419958   0.000000
     8  H    2.701621   1.743636   0.000000
     9  C    3.107490   2.132098   2.131386   0.000000
    10  O    1.213428   3.900146   2.645681   3.329080   0.000000
    11  C    3.495724   3.352814   2.737313   1.355109   3.302207
    12  C    4.172738   2.819672   3.465254   1.450837   4.601595
    13  H    3.458430   3.867070   2.757539   2.188033   2.898727
    14  N    4.598778   4.326601   4.048630   2.243222   4.503261
    15  C    4.948641   4.106557   4.395350   2.297445   5.169533
    16  C    4.922703   3.085867   4.285417   2.619665   5.585690
    17  H    5.281671   5.271767   4.833985   3.189226   5.037110
    18  C    6.187273   5.236974   5.736706   3.633403   6.488049
    19  C    6.139013   4.444962   5.623055   3.809356   6.799369
    20  H    4.817298   2.639096   4.138359   2.950810   5.603087
    21  H    6.915324   6.198081   6.529043   4.449817   7.101880
    22  C    6.681031   5.350970   6.230492   4.200051   7.184005
    23  H    6.865895   5.017186   6.380759   4.724325   7.625182
    24  H    7.699388   6.378512   7.300579   5.271436   8.218207
    25  O    1.353099   4.471205   4.020697   4.141867   2.238702
    26  H    1.946832   5.296980   4.627406   4.784544   2.377258
    27  H    2.814159   3.444802   3.721245   4.583478   3.769468
                   11         12         13         14         15
    11  C    0.000000
    12  C    2.247542   0.000000
    13  H    1.066942   3.296079   0.000000
    14  N    1.382094   2.241032   2.138196   0.000000
    15  C    2.247808   1.404319   3.254154   1.377793   0.000000
    16  C    3.629904   1.398120   4.660153   3.558160   2.416545
    17  H    2.112360   3.197901   2.504965   0.988754   2.113838
    18  C    3.615526   2.447537   4.579408   2.517163   1.392895
    19  C    4.576003   2.393938   5.641731   4.109142   2.752381
    20  H    4.181861   2.153870   5.128337   4.394849   3.396918
    21  H    4.150323   3.422222   4.988255   2.850330   2.155624
    22  C    4.567891   2.778769   5.606416   3.704644   2.371627
    23  H    5.595794   3.369937   6.656482   5.181077   3.825188
    24  H    5.584081   3.851748   6.603971   4.617170   3.349927
    25  O    4.522235   4.937717   4.549627   5.417576   5.649826
    26  H    4.936055   5.631073   4.803781   5.796298   6.185043
    27  H    5.569425   5.307655   5.783401   6.640833   6.527251
                   16         17         18         19         20
    16  C    0.000000
    17  H    4.461666   0.000000
    18  C    2.825592   2.873420   0.000000
    19  C    1.379284   4.847882   2.424365   0.000000
    20  H    1.073837   5.347150   3.899370   2.132788   0.000000
    21  H    3.899022   2.832371   1.073431   3.401524   4.972790
    22  C    2.420551   4.206515   1.379273   1.403565   3.394061
    23  H    2.127891   5.916678   3.385135   1.072988   2.455000
    24  H    3.382993   4.985547   2.124101   2.143899   4.267592
    25  O    5.513999   6.046626   6.737653   6.598402   5.387334
    26  H    6.315761   6.302335   7.267907   7.356255   6.269905
    27  H    5.378513   7.510008   7.606722   6.617541   4.713759
                   21         22         23         24         25
    21  H    0.000000
    22  C    2.140555   0.000000
    23  H    4.274679   2.143221   0.000000
    24  H    2.461437   1.073151   2.453305   0.000000
    25  O    7.436202   7.138227   7.237474   8.082994   0.000000
    26  H    7.870519   7.778419   8.038199   8.704688   0.954724
    27  H    8.547137   7.624844   6.974618   8.585844   2.953298
                   26         27
    26  H    0.000000
    27  H    3.751045   0.000000
 Stoichiometry    C11H12N2O2
 Framework group  C1[X(C11H12N2O2)]
 Deg. of freedom    75
 Full point group                 C1      NOp   1
 Largest Abelian subgroup         C1      NOp   1
 Largest concise Abelian subgroup C1      NOp   1
                         Standard orientation:                         
 ---------------------------------------------------------------------
 Center     Atomic      Atomic             Coordinates (Angstroms)
 Number     Number       Type             X           Y           Z
 ---------------------------------------------------------------------
      1          7           0       -3.068006   -1.768864   -0.580567
      2          1           0       -3.627568   -1.470309   -1.347312
      3          6           0       -2.057685   -0.841782   -0.103228
      4          1           0       -1.474625   -1.346235    0.652753
      5          6           0       -1.143067   -0.396976   -1.250894
      6          6           0       -2.727263    0.346454    0.559167
      7          1           0       -0.847030   -1.295017   -1.778868
      8          1           0       -1.719143    0.205858   -1.943368
      9          6           0        0.069719    0.359377   -0.794798
     10          8           0       -2.972237    1.418539    0.046303
     11          6           0        0.224509    1.704093   -0.730772
     12          6           0        1.312493   -0.219104   -0.319614
     13          1           0       -0.474226    2.470499   -0.981285
     14          7           0        1.481735    2.014373   -0.247768
     15          6           0        2.165422    0.846463    0.010827
     16          6           0        1.766797   -1.531154   -0.155685
     17          1           0        1.830155    2.929859   -0.113145
     18          6           0        3.452801    0.639251    0.500596
     19          6           0        3.040420   -1.743631    0.329251
     20          1           0        1.136608   -2.364076   -0.405142
     21          1           0        4.094683    1.463074    0.748702
     22          6           0        3.876171   -0.664260    0.655552
     23          1           0        3.402332   -2.745263    0.459852
     24          1           0        4.862622   -0.858417    1.030878
     25          8           0       -3.129178    0.060563    1.819170
     26          1           0       -3.601183    0.772332    2.245894
     27          1           0       -3.549301   -2.306062    0.103200
 ---------------------------------------------------------------------
 Rotational constants (GHZ):      1.1725581      0.3632323      0.3207713
 Standard basis: 6-31G (6D, 7F)
 There are   159 symmetry adapted cartesian basis functions of A   symmetry.
 There are   159 symmetry adapted basis functions of A   symmetry.
   159 basis functions,   378 primitive gaussians,   159 cartesian basis functions
    54 alpha electrons       54 beta electrons
       nuclear repulsion energy       959.1711462998 Hartrees.
 NAtoms=   27 NActive=   27 NUniq=   27 SFac= 1.00D+00 NAtFMM=   60 NAOKFM=F Big=F
 Integral buffers will be    262144 words long.
 Raffenetti 1 integral format.
 Two-electron integral symmetry is turned on.
 One-electron integrals computed using PRISM.
 NBasis=   159 RedAO= T EigKep=  4.63D-04  NBF=   159
 NBsUse=   159 1.00D-06 EigRej= -1.00D+00 NBFU=   159
 ExpMin= 1.61D-01 ExpMax= 5.48D+03 ExpMxC= 8.25D+02 IAcc=1 IRadAn=         1 AccDes= 0.00D+00
 Harris functional with IExCor=  205 and IRadAn=       1 diagonalized for initial guess.
 HarFok:  IExCor=  205 AccDes= 0.00D+00 IRadAn=         1 IDoV= 1 UseB2=F ITyADJ=14
 ICtDFT=  3500011 ScaDFX=  1.000000  1.000000  1.000000  1.000000
 FoFCou: FMM=F IPFlag=           0 FMFlag=      100000 FMFlg1=           0
         NFxFlg=           0 DoJE=T BraDBF=F KetDBF=T FulRan=T
         wScrn=  0.000000 ICntrl=     500 IOpCl=  0 I1Cent=   200000004 NGrid=           0
         NMat0=    1 NMatS0=      1 NMatT0=    0 NMatD0=    1 NMtDS0=    0 NMtDT0=    0
 Petite list used in FoFCou.
 Requested convergence on RMS density matrix=1.00D-08 within 128 cycles.
 Requested convergence on MAX density matrix=1.00D-06.
 Requested convergence on             energy=1.00D-06.
 No special actions if energy rises.
 Integral accuracy reduced to 1.0D-05 until final iterations.
 Initial convergence to 1.0D-05 achieved.  Increase integral accuracy.
 SCF Done:  E(RHF) =  -681.898985309     A.U. after   16 cycles
            NFock= 16  Conv=0.71D-08     -V/T= 1.9991
 Range of M.O.s used for correlation:     1   159
 NBasis=   159 NAE=    54 NBE=    54 NFC=     0 NFV=     0
 NROrb=    159 NOA=    54 NOB=    54 NVA=   105 NVB=   105

 **** Warning!!: The largest alpha MO coefficient is  0.12238252D+02

          Differentiating once with respect to magnetic field using GIAOs.
          Electric field/nuclear overlap derivatives assumed to be zero.
 FoFCou: FMM=F IPFlag=           0 FMFlag=      100000 FMFlg1=           0
         NFxFlg=           0 DoJE=F BraDBF=F KetDBF=T FulRan=T
         wScrn=  0.000000 ICntrl=    6100 IOpCl=  0 I1Cent=           7 NGrid=          27
         NMat0=    1 NMatS0=      1 NMatT0=    0 NMatD0=    1 NMtDS0=    0 NMtDT0=    0
 Symmetry not used in FoFCou.
 FoFJK:  IHMeth= 1 ICntrl=    6127 DoSepK=F KAlg= 0 I1Cent=   0 FoldK=F
 IRaf=         1 NMat=   1 IRICut=       1 DoRegI=T DoRafI=F ISym2E= 0.
          There are     3 degrees of freedom in the 1st order CPHF.  IDoFFX=0 NUNeed=     3.
      3 vectors produced by pass  0 Test12= 1.89D-13 3.33D-08 XBig12= 1.50D+01 9.43D-01.
 AX will form     3 AO Fock derivatives at one time.
      3 vectors produced by pass  1 Test12= 1.89D-13 3.33D-08 XBig12= 2.00D-01 1.86D-01.
      3 vectors produced by pass  2 Test12= 1.89D-13 3.33D-08 XBig12= 4.51D-03 2.32D-02.
      3 vectors produced by pass  3 Test12= 1.89D-13 3.33D-08 XBig12= 7.08D-05 3.66D-03.
      3 vectors produced by pass  4 Test12= 1.89D-13 3.33D-08 XBig12= 2.03D-06 3.55D-04.
      3 vectors produced by pass  5 Test12= 1.89D-13 3.33D-08 XBig12= 3.51D-08 3.57D-05.
      3 vectors produced by pass  6 Test12= 1.89D-13 3.33D-08 XBig12= 5.77D-10 4.94D-06.
      3 vectors produced by pass  7 Test12= 1.89D-13 3.33D-08 XBig12= 1.40D-11 7.45D-07.
      3 vectors produced by pass  8 Test12= 1.89D-13 3.33D-08 XBig12= 2.38D-13 8.73D-08.
 InvSVY:  IOpt=1 It=  1 EMax= 4.44D-16
 Solved reduced A of dimension    27 with     3 vectors.
 Calculating GIAO nuclear magnetic shielding tensors.
 SCF GIAO Magnetic shielding tensor (ppm):
      1  N    Isotropic =   251.8519   Anisotropy =    41.2168
   XX=   255.4494   YX=    36.0685   ZX=     1.7054
   XY=    23.0762   YY=   242.6353   ZY=    -3.3368
   XZ=     6.3969   YZ=    -9.1913   ZZ=   257.4711
   Eigenvalues:   217.4096   258.8164   279.3298
      2  H    Isotropic =    33.2758   Anisotropy =    15.3269
   XX=    34.9339   YX=     1.8996   ZX=     8.6763
   XY=     1.9775   YY=    28.8874   ZY=    -1.0004
   XZ=     7.3317   YZ=    -2.1946   ZZ=    36.0062
   Eigenvalues:    25.5590    30.7748    43.4938
      3  C    Isotropic =   156.5527   Anisotropy =    18.9659
   XX=   163.6613   YX=    11.1527   ZX=    -6.4652
   XY=     2.9091   YY=   156.7394   ZY=    13.5083
   XZ=   -13.3068   YZ=     5.9306   ZZ=   149.2574
   Eigenvalues:   137.0540   163.4075   169.1966
      4  H    Isotropic =    30.0791   Anisotropy =     5.1064
   XX=    32.9400   YX=    -0.6628   ZX=     2.2357
   XY=     0.1661   YY=    28.0851   ZY=    -2.3374
   XZ=    -0.0925   YZ=    -3.4367   ZZ=    29.2122
   Eigenvalues:    25.6733    31.0806    33.4834
      5  C    Isotropic =   181.7440   Anisotropy =    28.0462
   XX=   187.6706   YX=    14.7727   ZX=    -6.2905
   XY=    16.3456   YY=   175.0387   ZY=     8.2165
   XZ=   -13.4050   YZ=    -0.5381   ZZ=   182.5228
   Eigenvalues:   160.9082   183.8824   200.4415
      6  C    Isotropic =    17.0658   Anisotropy =   139.7796
   XX=    69.4050   YX=    29.4558   ZX=    70.4896
   XY=    18.9489   YY=    59.1657   ZY=    11.6523
   XZ=    80.8385   YZ=   -17.7866   ZZ=   -77.3732
   Eigenvalues:  -110.2906    51.2358   110.2522
      7  H    Isotropic =    30.5098   Anisotropy =     7.9118
   XX=    31.0947   YX=    -0.5288   ZX=    -1.1007
   XY=    -0.7333   YY=    32.2562   ZY=     4.0692
   XZ=     0.2367   YZ=     6.0226   ZZ=    28.1785
   Eigenvalues:    24.7751    30.9700    35.7843
      8  H    Isotropic =    30.3627   Anisotropy =     7.0987
   XX=    30.5244   YX=    -0.2695   ZX=     2.4125
   XY=     0.3087   YY=    29.4688   ZY=    -2.6890
   XZ=     4.1899   YZ=    -3.3700   ZZ=    31.0947
   Eigenvalues:    26.0065    29.9863    35.0951
      9  C    Isotropic =    93.7942   Anisotropy =   123.4503
   XX=    34.6427   YX=     0.1959   ZX=   -55.1217
   XY=     9.2822   YY=    91.3874   ZY=     0.4347
   XZ=   -52.9877   YZ=    -2.1843   ZZ=   155.3524
   Eigenvalues:    13.7571    91.5311   176.0943
     10  O    Isotropic =  -100.4717   Anisotropy =   662.5376
   XX=   190.0900   YX=   159.9056   ZX=   207.1587
   XY=   189.4034   YY=  -230.9769   ZY=   109.1812
   XZ=   199.8521   YZ=   117.2228   ZZ=  -260.5281
   Eigenvalues:  -365.5051  -277.1299   341.2200
     11  C    Isotropic =    76.2349   Anisotropy =   120.5156
   XX=    10.0602   YX=    26.4508   ZX=   -56.8537
   XY=    17.3953   YY=    83.0975   ZY=     4.2109
   XZ=   -54.1025   YZ=     9.7243   ZZ=   135.5469
   Eigenvalues:   -16.2600    88.3861   156.5786
     12  C    Isotropic =    77.7868   Anisotropy =   167.0976
   XX=    29.9592   YX=    -1.2073   ZX=   -61.5186
   XY=    -3.4291   YY=    37.9481   ZY=    -1.7393
   XZ=   -61.3208   YZ=     4.8817   ZZ=   165.4530
   Eigenvalues:     6.1816    37.9935   189.1852
     13  H    Isotropic =    26.0900   Anisotropy =     4.7576
   XX=    27.2457   YX=     2.4400   ZX=     0.1446
   XY=    -0.7892   YY=    28.8597   ZY=    -1.6344
   XZ=     1.1446   YZ=    -0.2223   ZZ=    22.1646
   Eigenvalues:    21.9308    27.0774    29.2617
     14  N    Isotropic =   158.4957   Anisotropy =    68.9582
   XX=   167.8986   YX=   -13.8061   ZX=   -14.6376
   XY=   -23.6254   YY=   108.8483   ZY=    -9.7250
   XZ=   -14.3073   YZ=    -4.7812   ZZ=   198.7400
   Eigenvalues:   102.1375   168.8817   204.4678
     15  C    Isotropic =    68.8377   Anisotropy =   158.2027
   XX=    62.2599   YX=    17.4593   ZX=   -43.1846
   XY=    21.1056   YY=   -13.3475   ZY=     7.3998
   XZ=   -43.3381   YZ=     6.2393   ZZ=   157.6008
   Eigenvalues:   -19.7496    51.9565   174.3062
     16  C    Isotropic =    83.4289   Anisotropy =   178.9421
   XX=    68.5977   YX=   -36.0057   ZX=   -52.1918
   XY=   -35.5601   YY=     0.1137   ZY=   -15.2807
   XZ=   -54.3247   YZ=   -13.9565   ZZ=   181.5751
   Eigenvalues:   -21.5414    69.1044   202.7236
     17  H    Isotropic =    27.6444   Anisotropy =    14.0336
   XX=    27.3381   YX=     3.5811   ZX=     2.5520
   XY=     3.9333   YY=    35.2079   ZY=     1.2645
   XZ=     2.7698   YZ=     1.2533   ZZ=    20.3874
   Eigenvalues:    19.4857    26.4475    37.0002
     18  C    Isotropic =    94.2357   Anisotropy =   157.5066
   XX=    56.0933   YX=   -34.0037   ZX=   -55.0472
   XY=   -36.4915   YY=    48.3646   ZY=   -14.7227
   XZ=   -54.5715   YZ=   -13.9537   ZZ=   178.2493
   Eigenvalues:     3.1170    80.3500   199.2402
     19  C    Isotropic =    85.2145   Anisotropy =   176.1075
   XX=    85.9607   YX=    24.1649   ZX=   -44.8012
   XY=    25.8297   YY=   -15.7980   ZY=     8.2664
   XZ=   -44.5543   YZ=     5.9865   ZZ=   185.4808
   Eigenvalues:   -23.1117    76.1357   202.6195
     20  H    Isotropic =    25.3878   Anisotropy =     7.7216
   XX=    28.3902   YX=    -2.2703   ZX=     2.2794
   XY=    -2.2320   YY=    26.7816   ZY=    -0.5939
   XZ=     2.5293   YZ=    -0.5352   ZZ=    20.9917
   Eigenvalues:    20.2773    25.3506    30.5356
     21  H    Isotropic =    26.1910   Anisotropy =     4.8455
   XX=    28.4391   YX=    -0.5102   ZX=     2.5076
   XY=    -0.1128   YY=    27.8910   ZY=    -0.1033
   XZ=     2.5576   YZ=    -0.2167   ZZ=    22.2429
   Eigenvalues:    21.3391    27.8125    29.4213
     22  C    Isotropic =    79.8949   Anisotropy =   183.8777
   XX=     0.5071   YX=    11.9876   ZX=   -77.2745
   XY=     8.6710   YY=    65.8930   ZY=     2.4307
   XZ=   -76.2815   YZ=     3.2123   ZZ=   173.2846
   Eigenvalues:   -29.8667    67.0714   202.4800
     23  H    Isotropic =    26.0571   Anisotropy =     4.4449
   XX=    28.0712   YX=    -0.7950   ZX=     2.1519
   XY=    -0.2440   YY=    27.4737   ZY=    -0.0415
   XZ=     2.2148   YZ=    -0.2006   ZZ=    22.6264
   Eigenvalues:    21.8584    27.2925    29.0203
     24  H    Isotropic =    25.9724   Anisotropy =     3.5195
   XX=    27.1215   YX=    -0.2964   ZX=     1.7875
   XY=    -0.3703   YY=    28.0868   ZY=    -0.1458
   XZ=     1.8891   YZ=    -0.0760   ZZ=    22.7090
   Eigenvalues:    22.0435    27.5550    28.3188
     25  O    Isotropic =   166.1698   Anisotropy =   186.6039
   XX=   184.8372   YX=    44.8122   ZX=    -9.3961
   XY=    87.8248   YY=    35.7342   ZY=   -60.2088
   XZ=   -44.4485   YZ=    23.7691   ZZ=   277.9380
   Eigenvalues:    10.2939   197.6431   290.5724
     26  H    Isotropic =    28.3356   Anisotropy =    14.5343
   XX=    28.9231   YX=    -3.3616   ZX=    -4.1499
   XY=    -1.9572   YY=    25.5652   ZY=     4.3158
   XZ=    -6.4242   YZ=     6.9921   ZZ=    30.5185
   Eigenvalues:    21.7677    25.2140    38.0252
     27  H    Isotropic =    32.7100   Anisotropy =    18.1945
   XX=    31.9377   YX=     8.7538   ZX=    -4.6580
   XY=     7.2958   YY=    33.9858   ZY=    -5.8931
   XZ=    -3.6004   YZ=    -5.2573   ZZ=    32.2064
   Eigenvalues:    24.7953    28.4950    44.8397
 End of Minotr F.D. properties file   721 does not exist.
 End of Minotr F.D. properties file   722 does not exist.
 End of Minotr F.D. properties file   788 does not exist.

 **********************************************************************

            Population analysis using the SCF density.

 **********************************************************************

 Orbital symmetries:
       Occupied  (A) (A) (A) (A) (A) (A) (A) (A) (A) (A) (A) (A)
                 (A) (A) (A) (A) (A) (A) (A) (A) (A) (A) (A) (A)
                 (A) (A) (A) (A) (A) (A) (A) (A) (A) (A) (A) (A)
                 (A) (A) (A) (A) (A) (A) (A) (A) (A) (A) (A) (A)
                 (A) (A) (A) (A) (A) (A)
       Virtual   (A) (A) (A) (A) (A) (A) (A) (A) (A) (A) (A) (A)
                 (A) (A) (A) (A) (A) (A) (A) (A) (A) (A) (A) (A)
                 (A) (A) (A) (A) (A) (A) (A) (A) (A) (A) (A) (A)
                 (A) (A) (A) (A) (A) (A) (A) (A) (A) (A) (A) (A)
                 (A) (A) (A) (A) (A) (A) (A) (A) (A) (A) (A) (A)
                 (A) (A) (A) (A) (A) (A) (A) (A) (A) (A) (A) (A)
                 (A) (A) (A) (A) (A) (A) (A) (A) (A) (A) (A) (A)
                 (A) (A) (A) (A) (A) (A) (A) (A) (A) (A) (A) (A)
                 (A) (A) (A) (A) (A) (A) (A) (A) (A)
 The electronic state is 1-A.
 Alpha  occ. eigenvalues --  -20.61535 -20.56774 -15.59712 -15.54725 -11.40401
 Alpha  occ. eigenvalues --  -11.28384 -11.26849 -11.26599 -11.23197 -11.23092
 Alpha  occ. eigenvalues --  -11.23056 -11.22886 -11.22651 -11.22313 -11.22127
 Alpha  occ. eigenvalues --   -1.48449  -1.37626  -1.29896  -1.20678  -1.13713
 Alpha  occ. eigenvalues --   -1.08384  -1.01873  -1.00023  -0.97795  -0.92160
 Alpha  occ. eigenvalues --   -0.84452  -0.81398  -0.80722  -0.76091  -0.72927
 Alpha  occ. eigenvalues --   -0.72208  -0.69047  -0.67580  -0.65642  -0.65163
 Alpha  occ. eigenvalues --   -0.64813  -0.61129  -0.59888  -0.59508  -0.58266
 Alpha  occ. eigenvalues --   -0.58078  -0.55942  -0.53144  -0.52875  -0.51665
 Alpha  occ. eigenvalues --   -0.49523  -0.47902  -0.46976  -0.46715  -0.46368
 Alpha  occ. eigenvalues --   -0.38721  -0.37158  -0.29937  -0.27910
 Alpha virt. eigenvalues --    0.13318   0.16365   0.17792   0.21749   0.23179
 Alpha virt. eigenvalues --    0.23358   0.24280   0.25335   0.27139   0.27995
 Alpha virt. eigenvalues --    0.30331   0.30850   0.32647   0.33590   0.34050
 Alpha virt. eigenvalues --    0.35899   0.38755   0.40841   0.41001   0.44117
 Alpha virt. eigenvalues --    0.44746   0.45548   0.46639   0.48058   0.50775
 Alpha virt. eigenvalues --    0.51355   0.53794   0.53961   0.56246   0.60208
 Alpha virt. eigenvalues --    0.66867   0.71699   0.74873   0.75439   0.76123
 Alpha virt. eigenvalues --    0.78674   0.79823   0.80389   0.81342   0.82303
 Alpha virt. eigenvalues --    0.84234   0.84475   0.86329   0.87304   0.87821
 Alpha virt. eigenvalues --    0.88617   0.89598   0.90512   0.91576   0.93294
 Alpha virt. eigenvalues --    0.94335   0.94534   0.95855   0.96294   0.99744
 Alpha virt. eigenvalues --    1.00479   1.02292   1.04896   1.05585   1.07829
 Alpha virt. eigenvalues --    1.10240   1.12141   1.12776   1.14081   1.15384
 Alpha virt. eigenvalues --    1.16356   1.16582   1.18087   1.20264   1.21704
 Alpha virt. eigenvalues --    1.22523   1.22652   1.24353   1.25558   1.26141
 Alpha virt. eigenvalues --    1.26518   1.28161   1.29421   1.29902   1.31101
 Alpha virt. eigenvalues --    1.34264   1.35397   1.36556   1.37486   1.39824
 Alpha virt. eigenvalues --    1.41894   1.44447   1.45445   1.47040   1.52031
 Alpha virt. eigenvalues --    1.57505   1.60551   1.62312   1.67380   1.73900
 Alpha virt. eigenvalues --    1.76145   1.81467   1.83761   1.91315   1.96015
 Alpha virt. eigenvalues --    2.06603   2.13193   2.16667   2.23015   2.28900
          Condensed to atoms (all electrons):
               1          2          3          4          5          6
     1  N    7.157556   0.336745   0.208599  -0.038307  -0.067807  -0.097932
     2  H    0.336745   0.381795  -0.038840   0.003646  -0.002181   0.001541
     3  C    0.208599  -0.038840   5.442913   0.400013   0.270020   0.177377
     4  H   -0.038307   0.003646   0.400013   0.489061  -0.030198  -0.052265
     5  C   -0.067807  -0.002181   0.270020  -0.030198   5.202817  -0.079830
     6  C   -0.097932   0.001541   0.177377  -0.052265  -0.079830   4.622374
     7  H    0.003564   0.000062  -0.054414  -0.003007   0.411284   0.006729
     8  H    0.000798   0.002281  -0.045818   0.003681   0.403734  -0.006347
     9  C    0.005945  -0.000008  -0.077071  -0.002308   0.217579   0.009909
    10  O    0.001049   0.000947  -0.099009   0.002577   0.009732   0.504160
    11  C    0.000019   0.000009  -0.006196   0.000173  -0.032550   0.004188
    12  C    0.000097  -0.000006  -0.002524   0.001081  -0.029703  -0.000096
    13  H    0.000001   0.000000  -0.000140  -0.000003   0.002362   0.000236
    14  N    0.000000   0.000000   0.000057   0.000000   0.003161  -0.000106
    15  C   -0.000001   0.000000   0.000088  -0.000016   0.003006   0.000000
    16  C   -0.000022   0.000000   0.000022   0.001089  -0.002962   0.000011
    17  H    0.000000   0.000000   0.000001   0.000000  -0.000058   0.000000
    18  C    0.000000   0.000000   0.000005   0.000001  -0.000156   0.000000
    19  C    0.000000   0.000000   0.000010   0.000023   0.000105   0.000000
    20  H    0.000076  -0.000001  -0.000092   0.000032   0.000001   0.000013
    21  H    0.000000   0.000000   0.000000   0.000000   0.000001   0.000000
    22  C    0.000000   0.000000  -0.000001  -0.000003   0.000000   0.000000
    23  H    0.000000   0.000000   0.000000   0.000000   0.000001   0.000000
    24  H    0.000000   0.000000   0.000000   0.000000   0.000000   0.000000
    25  O    0.006152  -0.000038  -0.116753   0.005114   0.003002   0.142670
    26  H   -0.000696   0.000001   0.007070  -0.000355  -0.000259  -0.016775
    27  H    0.340342  -0.024106  -0.036531  -0.003564   0.004478   0.001222
               7          8          9         10         11         12
     1  N    0.003564   0.000798   0.005945   0.001049   0.000019   0.000097
     2  H    0.000062   0.002281  -0.000008   0.000947   0.000009  -0.000006
     3  C   -0.054414  -0.045818  -0.077071  -0.099009  -0.006196  -0.002524
     4  H   -0.003007   0.003681  -0.002308   0.002577   0.000173   0.001081
     5  C    0.411284   0.403734   0.217579   0.009732  -0.032550  -0.029703
     6  C    0.006729  -0.006347   0.009909   0.504160   0.004188  -0.000096
     7  H    0.511826  -0.025797  -0.047302   0.000011   0.001506  -0.003290
     8  H   -0.025797   0.516518  -0.043015   0.003531  -0.002067   0.002623
     9  C   -0.047302  -0.043015   5.118331  -0.005842   0.615144   0.418251
    10  O    0.000011   0.003531  -0.005842   8.277654   0.000802  -0.000107
    11  C    0.001506  -0.002067   0.615144   0.000802   4.911226  -0.057467
    12  C   -0.003290   0.002623   0.418251  -0.000107  -0.057467   5.039858
    13  H   -0.000036   0.000783  -0.005811   0.002573   0.368048   0.000185
    14  N   -0.000133   0.000135  -0.084953   0.000030   0.185111  -0.086403
    15  C    0.000425  -0.000133  -0.054513   0.000004  -0.121239   0.535814
    16  C    0.000110   0.000031  -0.015416   0.000000   0.005565   0.480791
    17  H    0.000002  -0.000002   0.002102  -0.000001  -0.011426   0.002572
    18  C   -0.000001   0.000001   0.005566   0.000000   0.002611  -0.025701
    19  C   -0.000051   0.000001   0.003942   0.000000  -0.000562  -0.049899
    20  H    0.001211  -0.000018   0.000520   0.000000   0.000216  -0.026753
    21  H    0.000000   0.000000  -0.000303   0.000000   0.000201   0.001743
    22  C   -0.000001   0.000000   0.000619   0.000000  -0.000202  -0.034701
    23  H    0.000001   0.000000  -0.000112   0.000000   0.000004   0.002319
    24  H    0.000000   0.000000  -0.000010   0.000000   0.000006   0.000449
    25  O   -0.000069   0.000104  -0.000131  -0.124937  -0.000071  -0.000007
    26  H    0.000004  -0.000001   0.000032   0.003817   0.000006   0.000002
    27  H   -0.000002  -0.000151  -0.000200  -0.000036  -0.000001  -0.000001
              13         14         15         16         17         18
     1  N    0.000001   0.000000  -0.000001  -0.000022   0.000000   0.000000
     2  H    0.000000   0.000000   0.000000   0.000000   0.000000   0.000000
     3  C   -0.000140   0.000057   0.000088   0.000022   0.000001   0.000005
     4  H   -0.000003   0.000000  -0.000016   0.001089   0.000000   0.000001
     5  C    0.002362   0.003161   0.003006  -0.002962  -0.000058  -0.000156
     6  C    0.000236  -0.000106   0.000000   0.000011   0.000000   0.000000
     7  H   -0.000036  -0.000133   0.000425   0.000110   0.000002  -0.000001
     8  H    0.000783   0.000135  -0.000133   0.000031  -0.000002   0.000001
     9  C   -0.005811  -0.084953  -0.054513  -0.015416   0.002102   0.005566
    10  O    0.002573   0.000030   0.000004   0.000000  -0.000001   0.000000
    11  C    0.368048   0.185111  -0.121239   0.005565  -0.011426   0.002611
    12  C    0.000185  -0.086403   0.535814   0.480791   0.002572  -0.025701
    13  H    0.406876  -0.034965   0.004373  -0.000139  -0.000308  -0.000022
    14  N   -0.034965   7.568625   0.143399   0.005900   0.335860  -0.042493
    15  C    0.004373   0.143399   4.825116  -0.036534  -0.015601   0.491769
    16  C   -0.000139   0.005900  -0.036534   4.918583  -0.000105  -0.041378
    17  H   -0.000308   0.335860  -0.015601  -0.000105   0.307576   0.000329
    18  C   -0.000022  -0.042493   0.491769  -0.041378   0.000329   4.918092
    19  C    0.000002   0.000523  -0.030708   0.529919   0.000003  -0.062914
    20  H    0.000000  -0.000179   0.001660   0.367213   0.000002   0.000418
    21  H    0.000001  -0.002052  -0.029077   0.000289   0.000999   0.367672
    22  C    0.000001   0.003728  -0.046651  -0.056100   0.000087   0.532545
    23  H    0.000000  -0.000001   0.000388  -0.023479   0.000000   0.002756
    24  H    0.000000  -0.000103   0.001980   0.002627  -0.000001  -0.023092
    25  O    0.000015   0.000001  -0.000001   0.000001   0.000000   0.000000
    26  H    0.000000   0.000000   0.000000   0.000000   0.000000   0.000000
    27  H    0.000000   0.000000   0.000000   0.000000   0.000000   0.000000
              19         20         21         22         23         24
     1  N    0.000000   0.000076   0.000000   0.000000   0.000000   0.000000
     2  H    0.000000  -0.000001   0.000000   0.000000   0.000000   0.000000
     3  C    0.000010  -0.000092   0.000000  -0.000001   0.000000   0.000000
     4  H    0.000023   0.000032   0.000000  -0.000003   0.000000   0.000000
     5  C    0.000105   0.000001   0.000001   0.000000   0.000001   0.000000
     6  C    0.000000   0.000013   0.000000   0.000000   0.000000   0.000000
     7  H   -0.000051   0.001211   0.000000  -0.000001   0.000001   0.000000
     8  H    0.000001  -0.000018   0.000000   0.000000   0.000000   0.000000
     9  C    0.003942   0.000520  -0.000303   0.000619  -0.000112  -0.000010
    10  O    0.000000   0.000000   0.000000   0.000000   0.000000   0.000000
    11  C   -0.000562   0.000216   0.000201  -0.000202   0.000004   0.000006
    12  C   -0.049899  -0.026753   0.001743  -0.034701   0.002319   0.000449
    13  H    0.000002   0.000000   0.000001   0.000001   0.000000   0.000000
    14  N    0.000523  -0.000179  -0.002052   0.003728  -0.000001  -0.000103
    15  C   -0.030708   0.001660  -0.029077  -0.046651   0.000388   0.001980
    16  C    0.529919   0.367213   0.000289  -0.056100  -0.023479   0.002627
    17  H    0.000003   0.000002   0.000999   0.000087   0.000000  -0.000001
    18  C   -0.062914   0.000418   0.367672   0.532545   0.002756  -0.023092
    19  C    4.999036  -0.020312   0.001945   0.501505   0.375325  -0.024636
    20  H   -0.020312   0.463420   0.000010   0.002075  -0.000048  -0.000114
    21  H    0.001945   0.000010   0.470903  -0.017314  -0.000112  -0.000186
    22  C    0.501505   0.002075  -0.017314   4.980450  -0.025798   0.373262
    23  H    0.375325  -0.000048  -0.000112  -0.025798   0.478898  -0.000303
    24  H   -0.024636  -0.000114  -0.000186   0.373262  -0.000303   0.478118
    25  O    0.000000   0.000000   0.000000   0.000000   0.000000   0.000000
    26  H    0.000000   0.000000   0.000000   0.000000   0.000000   0.000000
    27  H    0.000000  -0.000003   0.000000   0.000000   0.000000   0.000000
              25         26         27
     1  N    0.006152  -0.000696   0.340342
     2  H   -0.000038   0.000001  -0.024106
     3  C   -0.116753   0.007070  -0.036531
     4  H    0.005114  -0.000355  -0.003564
     5  C    0.003002  -0.000259   0.004478
     6  C    0.142670  -0.016775   0.001222
     7  H   -0.000069   0.000004  -0.000002
     8  H    0.000104  -0.000001  -0.000151
     9  C   -0.000131   0.000032  -0.000200
    10  O   -0.124937   0.003817  -0.000036
    11  C   -0.000071   0.000006  -0.000001
    12  C   -0.000007   0.000002  -0.000001
    13  H    0.000015   0.000000   0.000000
    14  N    0.000001   0.000000   0.000000
    15  C   -0.000001   0.000000   0.000000
    16  C    0.000001   0.000000   0.000000
    17  H    0.000000   0.000000   0.000000
    18  C    0.000000   0.000000   0.000000
    19  C    0.000000   0.000000   0.000000
    20  H    0.000000   0.000000  -0.000003
    21  H    0.000000   0.000000   0.000000
    22  C    0.000000   0.000000   0.000000
    23  H    0.000000   0.000000   0.000000
    24  H    0.000000   0.000000   0.000000
    25  O    8.564629   0.257156   0.002032
    26  H    0.257156   0.313567  -0.000040
    27  H    0.002032  -0.000040   0.369208
 Mulliken charges:
               1
     1  N   -0.856179
     2  H    0.338153
     3  C   -0.028784
     4  H    0.223535
     5  C   -0.285578
     6  C    0.782921
     7  H    0.197367
     8  H    0.189130
     9  C   -0.060943
    10  O   -0.576956
    11  C    0.136946
    12  C   -0.169125
    13  H    0.255968
    14  N   -0.995143
    15  C    0.326451
    16  C   -0.136016
    17  H    0.377967
    18  C   -0.126008
    19  C   -0.223257
    20  H    0.210652
    21  H    0.205279
    22  C   -0.213503
    23  H    0.190162
    24  H    0.192003
    25  O   -0.738867
    26  H    0.436471
    27  H    0.347353
 Sum of Mulliken charges =   0.00000
 Mulliken charges with hydrogens summed into heavy atoms:
               1
     1  N   -0.170673
     3  C    0.194751
     5  C    0.100919
     6  C    0.782921
     9  C   -0.060943
    10  O   -0.576956
    11  C    0.392915
    12  C   -0.169125
    14  N   -0.617176
    15  C    0.326451
    16  C    0.074636
    18  C    0.079270
    19  C   -0.033095
    22  C   -0.021499
    25  O   -0.302396
 Electronic spatial extent (au):  <R**2>=           3503.3648
 Charge=              0.0000 electrons
 Dipole moment (field-independent basis, Debye):
    X=             -0.5534    Y=              0.9732    Z=              1.0017  Tot=              1.5023
 Quadrupole moment (field-independent basis, Debye-Ang):
   XX=            -77.9172   YY=            -81.1295   ZZ=            -89.0600
   XY=              7.5587   XZ=             -0.5644   YZ=              2.0605
 Traceless Quadrupole moment (field-independent basis, Debye-Ang):
   XX=              4.7850   YY=              1.5728   ZZ=             -6.3578
   XY=              7.5587   XZ=             -0.5644   YZ=              2.0605
 Octapole moment (field-independent basis, Debye-Ang**2):
  XXX=            -57.6328  YYY=             28.0268  ZZZ=              9.3489  XYY=             17.9882
  XXY=             -7.4190  XXZ=             32.9675  XZZ=            -36.5738  YZZ=             11.9421
  YYZ=              9.9779  XYZ=            -10.1403
 Hexadecapole moment (field-independent basis, Debye-Ang**3):
 XXXX=          -2983.2176 YYYY=           -791.2561 ZZZZ=           -389.9348 XXXY=             96.1495
 XXXZ=            -13.4190 YYYX=             58.4063 YYYZ=            -21.3996 ZZZX=            -46.6511
 ZZZY=             30.8938 XXYY=           -656.2917 XXZZ=           -571.5309 YYZZ=           -217.3610
 XXYZ=             45.5742 YYXZ=            -25.0487 ZZXY=            -29.8181
 N-N= 9.591711462998D+02 E-N=-3.515707751616D+03  KE= 6.825003764055D+02
 1|1|UNPC-DUMMYMAN|SP|RHF|6-31G|C11H12N2O2|JOSEPH|02-Feb-2021|0||# nmr=
 giao hf/6-31g geom=connectivity||Title Card Required||0,1|N,0,-3.06800
 6,-1.768864,-0.580567|H,0,-3.627568,-1.470309,-1.347312|C,0,-2.057685,
 -0.841782,-0.103228|H,0,-1.474625,-1.346235,0.652753|C,0,-1.143067,-0.
 396976,-1.250894|C,0,-2.727263,0.346454,0.559167|H,0,-0.84703,-1.29501
 7,-1.778868|H,0,-1.719143,0.205858,-1.943368|C,0,0.069719,0.359377,-0.
 794798|O,0,-2.972237,1.418539,0.046303|C,0,0.224509,1.704093,-0.730772
 |C,0,1.312493,-0.219104,-0.319614|H,0,-0.474226,2.470499,-0.981285|N,0
 ,1.481735,2.014373,-0.247768|C,0,2.165422,0.846463,0.010827|C,0,1.7667
 97,-1.531154,-0.155685|H,0,1.830155,2.929859,-0.113145|C,0,3.452801,0.
 639251,0.500596|C,0,3.04042,-1.743631,0.329251|H,0,1.136608,-2.364076,
 -0.405142|H,0,4.094683,1.463074,0.748702|C,0,3.876171,-0.66426,0.65555
 2|H,0,3.402332,-2.745263,0.459852|H,0,4.862622,-0.858417,1.030878|O,0,
 -3.129178,0.060563,1.81917|H,0,-3.601183,0.772332,2.245894|H,0,-3.5493
 01,-2.306062,0.1032||Version=IA32W-G09RevD.01|State=1-A|HF=-681.898985
 3|RMSD=7.145e-009|Dipole=-0.2177383,0.382884,0.3940911|Quadrupole=3.55
 75443,1.1693173,-4.7268616,5.6197168,-0.4195879,1.5319554|PG=C01 [X(C1
 1H12N2O2)]||@


 CHILDREN YOU ARE VERY LITTLE,
 AND YOUR BONES ARE VERY BRITTLE;
 IF YOU WOULD GROW GREAT AND STATELY
 YOU MUST TRY TO WALK SEDATELY.
 YOU MUST STILL BE BRIGHT AND QUIET,
 AND CONTENT WITH SIMPLE DIET;
 AND REMAIN, THROUGH ALL BEWILD'RING
 INNOCENT AND HONEST CHILDREN.
     -- A CHILD'S GARDEN OF VERSE,
        ROBERT LOUIS STEVENSON
 Job cpu time:       0 days  0 hours  1 minutes 55.0 seconds.
 File lengths (MBytes):  RWF=     16 Int=      0 D2E=      0 Chk=      2 Scr=      1
 Normal termination of Gaussian 09 at Tue Feb 02 14:05:40 2021.
