 Entering Link 1 = C:\G09W\l1.exe PID=    151976.
  
 Copyright (c) 1988,1990,1992,1993,1995,1998,2003,2009,2013,
            Gaussian, Inc.  All Rights Reserved.
  
 This is part of the Gaussian(R) 09 program.  It is based on
 the Gaussian(R) 03 system (copyright 2003, Gaussian, Inc.),
 the Gaussian(R) 98 system (copyright 1998, Gaussian, Inc.),
 the Gaussian(R) 94 system (copyright 1995, Gaussian, Inc.),
 the Gaussian 92(TM) system (copyright 1992, Gaussian, Inc.),
 the Gaussian 90(TM) system (copyright 1990, Gaussian, Inc.),
 the Gaussian 88(TM) system (copyright 1988, Gaussian, Inc.),
 the Gaussian 86(TM) system (copyright 1986, Carnegie Mellon
 University), and the Gaussian 82(TM) system (copyright 1983,
 Carnegie Mellon University). Gaussian is a federally registered
 trademark of Gaussian, Inc.
  
 This software contains proprietary and confidential information,
 including trade secrets, belonging to Gaussian, Inc.
  
 This software is provided under written license and may be
 used, copied, transmitted, or stored only in accord with that
 written license.
  
 The following legend is applicable only to US Government
 contracts under FAR:
  
                    RESTRICTED RIGHTS LEGEND
  
 Use, reproduction and disclosure by the US Government is
 subject to restrictions as set forth in subparagraphs (a)
 and (c) of the Commercial Computer Software - Restricted
 Rights clause in FAR 52.227-19.
  
 Gaussian, Inc.
 340 Quinnipiac St., Bldg. 40, Wallingford CT 06492
  
  
 ---------------------------------------------------------------
 Warning -- This program may not be used in any manner that
 competes with the business of Gaussian, Inc. or will provide
 assistance to any competitor of Gaussian, Inc.  The licensee
 of this program is prohibited from giving any competitor of
 Gaussian, Inc. access to this program.  By using this program,
 the user acknowledges that Gaussian, Inc. is engaged in the
 business of creating and licensing software in the field of
 computational chemistry and represents and warrants to the
 licensee that it is not a competitor of Gaussian, Inc. and that
 it will not use this program in any manner prohibited above.
 ---------------------------------------------------------------
  

 Cite this work as:
 Gaussian 09, Revision D.01,
 M. J. Frisch, G. W. Trucks, H. B. Schlegel, G. E. Scuseria, 
 M. A. Robb, J. R. Cheeseman, G. Scalmani, V. Barone, B. Mennucci, 
 G. A. Petersson, H. Nakatsuji, M. Caricato, X. Li, H. P. Hratchian, 
 A. F. Izmaylov, J. Bloino, G. Zheng, J. L. Sonnenberg, M. Hada, 
 M. Ehara, K. Toyota, R. Fukuda, J. Hasegawa, M. Ishida, T. Nakajima, 
 Y. Honda, O. Kitao, H. Nakai, T. Vreven, J. A. Montgomery, Jr., 
 J. E. Peralta, F. Ogliaro, M. Bearpark, J. J. Heyd, E. Brothers, 
 K. N. Kudin, V. N. Staroverov, T. Keith, R. Kobayashi, J. Normand, 
 K. Raghavachari, A. Rendell, J. C. Burant, S. S. Iyengar, J. Tomasi, 
 M. Cossi, N. Rega, J. M. Millam, M. Klene, J. E. Knox, J. B. Cross, 
 V. Bakken, C. Adamo, J. Jaramillo, R. Gomperts, R. E. Stratmann, 
 O. Yazyev, A. J. Austin, R. Cammi, C. Pomelli, J. W. Ochterski, 
 R. L. Martin, K. Morokuma, V. G. Zakrzewski, G. A. Voth, 
 P. Salvador, J. J. Dannenberg, S. Dapprich, A. D. Daniels, 
 O. Farkas, J. B. Foresman, J. V. Ortiz, J. Cioslowski, 
 and D. J. Fox, Gaussian, Inc., Wallingford CT, 2013.
 
 ******************************************
 Gaussian 09:  IA32W-G09RevD.01 24-Apr-2013
                06-Feb-2021 
 ******************************************
 %chk=C:\Users\rafae\documentos\Lab_Contempo_II\rotativo\NMR\data_base\fenilalani
 na_bmse000900_simulation_1\prueba.chk
 ------------------------------------------------------
 # nmr=(giao,spinspin,mixed) hf/3-21g geom=connectivity
 ------------------------------------------------------
 1/38=1,57=2/1;
 2/12=2,17=6,18=5,40=1/2;
 3/5=5,10=1100000,11=9,16=1,25=1,30=1/1,2,8,3;
 4//1;
 5/5=2,38=5/2;
 8/6=1,10=90,11=11/1;
 10/13=100,45=16,47=3/2;
 6/7=2,8=2,9=2,10=2,28=1/1;
 99/9=1/99;
 ----
 6140
 ----
 Symbolic Z-matrix:
 Charge =  0 Multiplicity = 1
 C                    -1.5682   -3.038    -0.706 
 C                    -0.1621   -3.0341   -0.7096 
 C                    -2.2735   -1.8222   -0.7238 
 C                     0.5378   -1.8129   -0.7258 
 C                    -1.57     -0.6039   -0.746 
 C                     0.5798    0.7157   -0.7227 
 C                    -0.1543   -0.578    -0.7416 
 C                     0.8642    1.2561    0.7112 
 C                     1.6043    2.5063    0.7871 
 N                    -0.3986    1.3912    1.458 
 O                     1.9151    2.9809    1.8752 
 O                     1.9593    3.1354   -0.1997 
 H                    -2.0782   -3.9242   -0.6894 
 H                     0.3505   -3.9188   -0.6973 
 H                    -3.296    -1.823    -0.7178 
 H                     1.5603   -1.8357   -0.7212 
 H                    -2.106     0.2673   -0.7574 
 H                     1.5288    0.6032   -1.2564 
 H                     0.0227    1.4659   -1.2926 
 H                     1.4601    0.503     1.2348 
 H                    -0.1809    1.7093    2.4047 
 H                    -0.9581    2.1186    1.0076 
 H                     2.3631    3.7378    1.929 
 
                          Input orientation:                          
 ---------------------------------------------------------------------
 Center     Atomic      Atomic             Coordinates (Angstroms)
 Number     Number       Type             X           Y           Z
 ---------------------------------------------------------------------
      1          6           0       -1.568200   -3.038000   -0.706000
      2          6           0       -0.162100   -3.034100   -0.709600
      3          6           0       -2.273500   -1.822200   -0.723800
      4          6           0        0.537800   -1.812900   -0.725800
      5          6           0       -1.570000   -0.603900   -0.746000
      6          6           0        0.579800    0.715700   -0.722700
      7          6           0       -0.154300   -0.578000   -0.741600
      8          6           0        0.864200    1.256100    0.711200
      9          6           0        1.604300    2.506300    0.787100
     10          7           0       -0.398600    1.391200    1.458000
     11          8           0        1.915100    2.980900    1.875200
     12          8           0        1.959300    3.135400   -0.199700
     13          1           0       -2.078200   -3.924200   -0.689400
     14          1           0        0.350500   -3.918800   -0.697300
     15          1           0       -3.296000   -1.823000   -0.717800
     16          1           0        1.560300   -1.835700   -0.721200
     17          1           0       -2.106000    0.267300   -0.757400
     18          1           0        1.528800    0.603200   -1.256400
     19          1           0        0.022700    1.465900   -1.292600
     20          1           0        1.460100    0.503000    1.234800
     21          1           0       -0.180900    1.709300    2.404700
     22          1           0       -0.958100    2.118600    1.007600
     23          1           0        2.363100    3.737800    1.929000
 ---------------------------------------------------------------------
                    Distance matrix (angstroms):
                    1          2          3          4          5
     1  C    0.000000
     2  C    1.406110   0.000000
     3  C    1.405679   2.434525   0.000000
     4  C    2.436493   1.407641   2.811316   0.000000
     5  C    2.434429   2.808804   1.407004   2.430002   0.000000
     6  C    4.324864   3.822511   3.818672   2.528951   2.522603
     7  C    2.837601   2.456321   2.457511   1.415708   1.415944
     8  C    5.134620   4.634413   4.623886   3.404448   3.392398
     9  C    6.559982   6.004691   6.004670   4.699125   4.701055
    10  N    5.066426   4.933326   4.312939   3.988995   3.195343
    11  O    7.417758   6.868492   6.882510   5.625182   5.645122
    12  O    7.128146   6.543934   6.539807   5.175241   5.170761
    13  H    1.022607   2.112848   2.111334   3.361900   3.359444
    14  H    2.111230   1.022548   3.358841   2.114405   3.831351
    15  H    2.112263   3.359786   1.022518   3.833822   2.113309
    16  H    3.351607   2.098323   3.833825   1.022765   3.364034
    17  H    3.349161   3.831485   2.096472   3.364210   1.022944
    18  H    4.811724   4.048220   4.541334   2.664800   3.364545
    19  H    4.812502   4.541370   4.050638   3.367064   2.668246
    20  H    5.047374   4.350092   4.814814   3.171432   3.785539
    21  H    5.842766   5.674422   5.161199   4.766807   4.148181
    22  H    5.468013   5.489327   4.500881   4.549625   3.295685
    23  H    8.264975   7.693990   7.710318   6.417940   6.440129
                    6          7          8          9         10
     6  C    0.000000
     7  C    1.487589   0.000000
     8  C    1.558520   2.551841   0.000000
     9  C    2.556432   3.865554   1.454823   0.000000
    10  N    2.483751   2.962376   1.473304   2.388548   0.000000
    11  O    3.696382   4.878097   2.331142   1.227112   2.838029
    12  O    2.833990   4.307006   2.358125   1.222933   3.368961
    13  H    5.347405   3.860203   6.120041   7.555937   5.973764
    14  H    4.640239   3.379013   5.387704   6.712479   5.779496
    15  H    4.633233   3.379478   5.369373   6.709732   4.843564
    16  H    2.733317   2.126518   3.477866   4.596724   4.358794
    17  H    2.723195   2.126950   3.457832   4.600536   3.014359
    18  H    1.094574   2.119688   2.177021   2.793453   3.421079
    19  H    1.094507   2.124255   2.183427   2.812302   2.783680
    20  H    2.156844   2.771463   1.093807   2.057775   2.072072
    21  H    3.368462   3.889942   2.040972   2.537475   1.022165
    22  H    2.706881   3.313223   2.037777   2.600928   1.022258
    23  H    4.398268   5.665292   3.144610   1.842907   3.654499
                   11         12         13         14         15
    11  O    0.000000
    12  O    2.081114   0.000000
    13  H    8.378784   8.147341   0.000000
    14  H    7.528054   7.252419   2.428719   0.000000
    15  H    7.546964   7.243779   2.428762   4.205920   0.000000
    16  H    5.483321   5.014279   4.195417   2.409044   4.856318
    17  H    5.519371   5.006365   4.192144   4.854013   2.405623
    18  H    3.950899   2.777406   5.816295   4.706322   5.427267
    19  H    3.988905   2.780662   5.816426   5.427415   4.707550
    20  H    2.599447   3.039164   5.985166   4.951418   5.642997
    21  H    2.508097   3.660207   6.701457   6.448279   5.650752
    22  H    3.122750   3.317029   6.375725   6.408535   4.896835
    23  H    0.881190   2.248845   9.235118   8.340955   8.363818
                   16         17         18         19         20
    16  H    0.000000
    17  H    4.226781   0.000000
    18  H    2.497131   3.684237   0.000000
    19  H    3.686635   2.500889   1.736058   0.000000
    20  H    3.050491   4.091636   2.494161   3.062849   0.000000
    21  H    5.036869   3.972940   4.189294   3.710893   2.348767
    22  H    4.996757   2.803607   3.688740   2.584358   2.917100
    23  H    6.223500   6.263703   4.546267   4.584507   3.429468
                   21         22         23
    21  H    0.000000
    22  H    1.650289   0.000000
    23  H    3.288319   3.808038   0.000000
 Stoichiometry    C9H11NO2
 Framework group  C1[X(C9H11NO2)]
 Deg. of freedom    63
 Full point group                 C1      NOp   1
 Largest Abelian subgroup         C1      NOp   1
 Largest concise Abelian subgroup C1      NOp   1
                         Standard orientation:                         
 ---------------------------------------------------------------------
 Center     Atomic      Atomic             Coordinates (Angstroms)
 Number     Number       Type             X           Y           Z
 ---------------------------------------------------------------------
      1          6           0        3.741009    0.111920   -0.336559
      2          6           0        3.099352   -1.105203   -0.626443
      3          6           0        3.041857    1.132327    0.331191
      4          6           0        1.756196   -1.298728   -0.252371
      5          6           0        1.701231    0.932502    0.708620
      6          6           0       -0.395546   -0.467953    0.784651
      7          6           0        1.034365   -0.282475    0.418763
      8          6           0       -1.392248   -0.005314   -0.320579
      9          6           0       -2.804583   -0.190064   -0.024461
     10          7           0       -1.146372    1.406831   -0.661192
     11          8           0       -3.658510    0.100881   -0.856304
     12          8           0       -3.212990   -0.642340    1.035830
     13          1           0        4.715273    0.255941   -0.611866
     14          1           0        3.608575   -1.847419   -1.111636
     15          1           0        3.505774    2.019338    0.539841
     16          1           0        1.309130   -2.189950   -0.480194
     17          1           0        1.213772    1.690679    1.192322
     18          1           0       -0.578977   -1.522891    1.011701
     19          1           0       -0.611010    0.063051    1.717151
     20          1           0       -1.178686   -0.587809   -1.221415
     21          1           0       -1.785418    1.673120   -1.413211
     22          1           0       -1.375841    1.975753    0.156539
     23          1           0       -4.515790   -0.008040   -0.683961
 ---------------------------------------------------------------------
 Rotational constants (GHZ):      2.5834005      0.4409576      0.4214657
 Standard basis: 3-21G (6D, 7F)
 Converting basis for Fermi contact spin-spin IFCMod=1.
 AO basis functions are being uncontracted.
 There are   281 symmetry adapted cartesian basis functions of A   symmetry.
 There are   281 symmetry adapted basis functions of A   symmetry.
   281 basis functions,   281 primitive gaussians,   281 cartesian basis functions
    44 alpha electrons       44 beta electrons
       nuclear repulsion energy       671.7163255901 Hartrees.
 NAtoms=   23 NActive=   23 NUniq=   23 SFac= 1.00D+00 NAtFMM=   60 NAOKFM=F Big=F
 Integral buffers will be    262144 words long.
 Raffenetti 1 integral format.
 Two-electron integral symmetry is turned on.
 One-electron integrals computed using PRISM.
 NBasis=   281 RedAO= T EigKep=  1.37D-03  NBF=   281
 NBsUse=   281 1.00D-06 EigRej= -1.00D+00 NBFU=   281
 ExpMin= 1.83D-01 ExpMax= 2.90D+03 ExpMxC= 2.90D+03 IAcc=4 IRadAn=    199590 AccDes= 0.00D+00
 Harris functional with IExCor=  205 and IRadAn=  199590 diagonalized for initial guess.
 HarFok:  IExCor=  205 AccDes= 0.00D+00 IRadAn=    199590 IDoV= 1 UseB2=F ITyADJ=14
 ICtDFT=  3500011 ScaDFX=  1.000000  1.000000  1.000000  1.000000
 FoFCou: FMM=F IPFlag=           0 FMFlag=      100000 FMFlg1=           0
         NFxFlg=           0 DoJE=T BraDBF=F KetDBF=T FulRan=T
         wScrn=  0.000000 ICntrl=     500 IOpCl=  0 I1Cent=   200000004 NGrid=           0
         NMat0=    1 NMatS0=      1 NMatT0=    0 NMatD0=    1 NMtDS0=    0 NMtDT0=    0
 Petite list used in FoFCou.
 Requested convergence on RMS density matrix=1.00D-08 within 128 cycles.
 Requested convergence on MAX density matrix=1.00D-06.
 Requested convergence on             energy=1.00D-06.
 No special actions if energy rises.
 Integral accuracy reduced to 1.0D-05 until final iterations.
 Initial convergence to 1.0D-05 achieved.  Increase integral accuracy.
